 Gaussian 16, Revision A.03,
 Gaussian 16:  ES64L-G16RevA.03 25-Dec-2016

 --------------------------------------------------------
 #HF/6-31G* SCF=tight Test Pop=MK iop(6/33=2) iop(6/42=6)
 --------------------------------------------------------

 ---------
 amb2oniom
 ---------
 Symbolic Z-matrix:
 Charge =  1 Multiplicity = 1

                         Standard orientation:
 ---------------------------------------------------------------------
 Center     Atomic      Atomic             Coordinates (Angstroms)
 Number     Number       Type             X           Y           Z
 ---------------------------------------------------------------------
      1          6    90000001       -3.510881    2.969821   -0.629838
      2          1    90000002       -3.575346    2.886698   -1.726303
      3          1    90000002       -2.575348    3.317027   -0.182372
      4          1    90000002       -4.435863    3.500337   -0.361767
      5          8    90000003       -3.640079    1.664478    0.045726
      6          6    90000001       -4.946658    1.023448    0.080851
      7          1    90000002       -5.515826    1.393028    0.942046
      8          1    90000002       -5.465364    1.028265   -0.885493
      9          6    90000001       -4.666912   -0.416714    0.482940
     10          1    90000002       -4.032609   -0.389878    1.370318
     11          1    90000002       -5.563467   -0.962485    0.796823
     12          8    90000003       -4.031941   -1.073998   -0.618872
     13          6    90000001       -3.464190   -2.369760   -0.454063
     14          1    90000002       -2.978569   -2.574526   -1.420883
     15          1    90000002       -4.155321   -3.164962   -0.159796
     16          6    90000001       -2.369747   -2.255800    0.585892
     17          1    90000002       -2.011573   -3.266294    0.811532
     18          1    90000002       -2.755986   -2.017627    1.577353
     19          7    90000004       -1.208857   -1.450515    0.250110
     20          6    90000005       -0.986823   -0.260738    0.955822
     21          1    90000006       -1.502299    0.236962    1.759551
     22          7    90000004        0.126621    0.231010    0.327390
     23          6    90000005        0.491175   -0.541638   -0.793554
     24          1    90000007        1.282673   -0.257053   -1.465969
     25          6    90000008       -0.368770   -1.635035   -0.810224
     26          1    90000007       -0.479887   -2.410099   -1.559643
     27          6    90000001        0.943472    1.335384    0.803323
     28          1    90000002        0.264220    2.191172    0.905517
     29          1    90000002        1.230490    1.106197    1.839515
     30          6    90000001        2.145191    1.790716   -0.058736
     31          1    90000002        1.849206    2.019389   -1.090531
     32          1    90000002        2.495653    2.704668    0.421752
     33          8    90000003        3.192961    0.869495    0.105365
     34          6    90000001        4.407634    1.330772   -0.411155
     35          1    90000002        4.637977    2.357512   -0.094223
     36          1    90000002        4.367034    1.251780   -1.503955
     37          6    90000001        5.538511    0.499914    0.228684
     38          1    90000002        6.481889    0.976100   -0.066078
     39          1    90000002        5.352371    0.521581    1.307240
     40          8    90000003        5.398783   -0.754772   -0.339505
     41          6    90000001        6.386178   -1.743599    0.102955
     42          1    90000002        5.888766   -2.696730   -0.113201
     43          1    90000002        6.468534   -1.637229    1.193140
     44          1    90000002        7.357427   -1.579555   -0.376173
 ---------------------------------------------------------------------

 SCF Done:  E(RHF) =  -914.853420405     A.U. after   14 cycles

 The electronic state is 1-A.
 Alpha  occ. eigenvalues --  -20.67383 -20.67157 -20.65515 -20.63260 -15.81226
 Alpha  occ. eigenvalues --  -15.80957 -11.50901 -11.43674 -11.43324 -11.41845
 Alpha  occ. eigenvalues --  -11.41454 -11.41112 -11.41038 -11.38578 -11.37975
 Alpha  occ. eigenvalues --  -11.37473 -11.36723 -11.35609 -11.34850  -1.52888
 Alpha  occ. eigenvalues --   -1.49885  -1.48024  -1.43964  -1.43466  -1.39515
 Alpha  occ. eigenvalues --   -1.21347  -1.18131  -1.15370  -1.11744  -1.09398
 Alpha  occ. eigenvalues --   -1.03026  -1.02450  -1.00008  -0.98682  -0.96516
 Alpha  occ. eigenvalues --   -0.94398  -0.92008  -0.91284  -0.88502  -0.82039
 Alpha  occ. eigenvalues --   -0.80856  -0.80523  -0.79829  -0.78649  -0.78367
 Alpha  occ. eigenvalues --   -0.76984  -0.76494  -0.75121  -0.74586  -0.74070
 Alpha  occ. eigenvalues --   -0.73042  -0.72108  -0.71524  -0.71201  -0.70799
 Alpha  occ. eigenvalues --   -0.69006  -0.67528  -0.66621  -0.65413  -0.65127
 Alpha  occ. eigenvalues --   -0.64378  -0.63158  -0.61960  -0.60962  -0.58672
 Alpha  occ. eigenvalues --   -0.57277  -0.56648  -0.55880  -0.54186  -0.53294
 Alpha  occ. eigenvalues --   -0.52985  -0.51614  -0.49905  -0.48342
 Alpha virt. eigenvalues --   -0.02400   0.03561   0.08686   0.09293   0.11259
 Alpha virt. eigenvalues --    0.11705   0.12415   0.14463   0.15466   0.16118
 Alpha virt. eigenvalues --    0.16696   0.17277   0.17351   0.18093   0.18447

 Mulliken charges:
               1
     1  C   -0.154020
     2  H    0.177205
     3  H    0.173439
     4  H    0.171893
     5  O   -0.690377
     6  C    0.009464
     7  H    0.168196
     8  H    0.191358
     9  C    0.000218
    10  H    0.125640
    11  H    0.175306
    12  O   -0.638035
    13  C    0.023814
    14  H    0.192776
    15  H    0.196523
    16  C   -0.207935
    17  H    0.222571
    18  H    0.226363
    19  N   -0.594562
    20  C    0.432652
    21  H    0.329499
    22  N   -0.620521
    23  C    0.045458
    24  H    0.308410
    25  C    0.040990
    26  H    0.297275
    27  C   -0.136315
    28  H    0.211287
    29  H    0.236125
    30  C   -0.024776
    31  H    0.178547
    32  H    0.195252
    33  O   -0.617581
    34  C   -0.017188
    35  H    0.147962
    36  H    0.174570
    37  C    0.020340
    38  H    0.155047
    39  H    0.156287
    40  O   -0.634069
    41  C   -0.166191
    42  H    0.187024
    43  H    0.154461
    44  H    0.175618
 Sum of Mulliken charges =   1.00000

 Dipole moment (field-independent basis, Debye):
    X=             -2.5012    Y=             -0.3812    Z=              2.1765  Tot=              3.3375
 Quadrupole moment (field-independent basis, Debye-Ang):
   XX=            -55.5163   YY=            -85.3441   ZZ=           -104.9657
   XY=              9.1192   XZ=             -4.4098   YZ=             -0.5704

 ESP charges:
               1
     1  C   -0.255632
     2  H    0.152669
     3  H    0.138902
     4  H    0.139340
     5  O   -0.294993
     6  C   -0.118976
     7  H    0.104291
     8  H    0.152321
     9  C    0.123672
    10  H    0.040368
    11  H    0.067965
    12  O   -0.381003
    13  C    0.013206
    14  H    0.091613
    15  H    0.111693
    16  C   -0.000150
    17  H    0.053021
    18  H    0.109618
    19  N    0.049076
    20  C   -0.105670
    21  H    0.261060
    22  N    0.212060
    23  C   -0.333079
    24  H    0.314893
    25  C   -0.092478
    26  H    0.247410
    27  C   -0.042467
    28  H    0.067808
    29  H    0.115343
    30  C    0.013255
    31  H    0.077360
    32  H    0.105444
    33  O   -0.375062
    34  C    0.076586
    35  H    0.033663
    36  H    0.070268
    37  C    0.107573
    38  H    0.053835
    39  H    0.073907
    40  O   -0.377517
    41  C   -0.115702
    42  H    0.117895
    43  H    0.081666
    44  H    0.114951
 Sum of ESP charges =   1.00000

 Normal termination of Gaussian 16 at Mon May  6 13:15:27 2024.
