 Gaussian 16, Revision A.03,
 Gaussian 16:  ES64L-G16RevA.03 25-Dec-2016

 -----------------------------------------------------------------
 # HF/GenECP SCF=tight Test Pop=(MK,ReadRadii) iop(6/33=2, 6/42=6)
 -----------------------------------------------------------------

 ---------
 amb2oniom
 ---------
 Symbolic Z-matrix:
 Charge =  0 Multiplicity = 1

                         Standard orientation:
 ---------------------------------------------------------------------
 Center     Atomic      Atomic             Coordinates (Angstroms)
 Number     Number       Type             X           Y           Z
 ---------------------------------------------------------------------
      1         53    90000001        3.087923    2.541473   -0.039751
      2          6    90000002       -4.245746    0.833270    2.949921
      3          1    90000003       -3.981330    1.896115    2.832681
      4          1    90000003       -3.483902    0.138413    3.314294
      5          1    90000003       -5.205582    0.869145    3.485016
      6          8    90000004       -4.577573    0.187146    1.665626
      7          6    90000002       -5.838961    0.523007    1.021112
      8          1    90000003       -6.636610   -0.117921    1.415025
      9          1    90000003       -6.046424    1.599636    0.994098
     10          6    90000002       -5.699739    0.011932   -0.404868
     11          1    90000003       -5.358236   -1.022799   -0.348226
     12          1    90000003       -6.652153   -0.037347   -0.944014
     13          8    90000004       -4.769263    0.854038   -1.093543
     14          6    90000002       -4.283645    0.488039   -2.381456
     15          1    90000003       -3.533378    1.259675   -2.614215
     16          1    90000003       -5.035521    0.388672   -3.169751
     17          6    90000002       -3.547805   -0.826605   -2.231295
     18          1    90000003       -3.278756   -1.179505   -3.232980
     19          1    90000003       -4.210344   -1.650317   -1.964013
     20          7    90000005       -2.335060   -0.827181   -1.432451
     21          6    90000006       -2.326477   -1.530193   -0.220592
     22          1    90000007       -3.055038   -2.128348    0.299801
     23          7    90000005       -1.073674   -1.247017    0.255637
     24          6    90000006       -0.396304   -0.309677   -0.549947
     25          1    90000008        0.561082    0.104973   -0.283343
     26          6    90000009       -1.218452   -0.071237   -1.646541
     27          1    90000008       -1.105797    0.653160   -2.444825
     28          6    90000002       -0.429329   -1.910498    1.377249
     29          1    90000003       -1.103363   -1.779546    2.233245
     30          1    90000003       -0.465106   -2.991666    1.181297
     31          6    90000002        0.977092   -1.431805    1.810183
     32          1    90000003        1.002997   -0.352178    2.005723
     33          1    90000003        1.173772   -1.966605    2.739863
     34          8    90000004        1.923282   -1.928570    0.898400
     35          6    90000002        3.239234   -1.783249    1.348013
     36          1    90000003        3.370571   -2.122773    2.384919
     37          1    90000003        3.525364   -0.730879    1.235105
     38          6    90000002        4.123639   -2.755918    0.541575
     39          1    90000003        5.114667   -2.740957    1.011937
     40          1    90000003        3.624971   -3.728944    0.595898
     41          8    90000004        4.152320   -2.210620   -0.730599
     42          6    90000002        4.957621   -2.957080   -1.701572
     43          1    90000003        4.541743   -2.631940   -2.662784
     44          1    90000003        4.712287   -4.018547   -1.561224
     45          1    90000003        6.028382   -2.784067   -1.548799
 ---------------------------------------------------------------------

 SCF Done:  E(RHF) =  -1211.66177927     A.U. after   14 cycles

 The electronic state is 1-A.
 Alpha  occ. eigenvalues --  -20.60035 -20.58601 -20.56413 -20.53330 -15.72219
 Alpha  occ. eigenvalues --  -15.71397 -11.41550 -11.33696 -11.33625 -11.33362
 Alpha  occ. eigenvalues --  -11.32903 -11.32363 -11.31924 -11.31457 -11.30840
 Alpha  occ. eigenvalues --  -11.30520 -11.25792 -11.25667 -11.25363  -7.53101
 Alpha  occ. eigenvalues --   -5.37988  -5.37927  -5.37900  -2.07346  -2.07332
 Alpha  occ. eigenvalues --   -2.07304  -2.07241  -2.07239  -1.43825  -1.41166
 Alpha  occ. eigenvalues --   -1.39258  -1.36870  -1.34287  -1.30564  -1.12613
 Alpha  occ. eigenvalues --   -1.09091  -1.07228  -1.04174  -0.99823  -0.95627
 Alpha  occ. eigenvalues --   -0.93059  -0.92474  -0.89270  -0.88081  -0.85696
 Alpha  occ. eigenvalues --   -0.84426  -0.81224  -0.79854  -0.74017  -0.72410
 Alpha  occ. eigenvalues --   -0.71681  -0.71055  -0.70367  -0.68963  -0.68277
 Alpha  occ. eigenvalues --   -0.68020  -0.67664  -0.66517  -0.66281  -0.65798
 Alpha  occ. eigenvalues --   -0.64523  -0.64052  -0.62975  -0.62220  -0.61672
 Alpha  occ. eigenvalues --   -0.60291  -0.59772  -0.58458  -0.57887  -0.57027
 Alpha  occ. eigenvalues --   -0.55490  -0.55224  -0.53335  -0.51669  -0.50935
 Alpha  occ. eigenvalues --   -0.49896  -0.48033  -0.47566  -0.45943  -0.44985
 Alpha  occ. eigenvalues --   -0.43962  -0.42368  -0.40370  -0.38682  -0.20062
 Alpha  occ. eigenvalues --   -0.19828  -0.19669
 Alpha virt. eigenvalues --    0.06296   0.13443   0.16165   0.17186   0.19580
 Alpha virt. eigenvalues --    0.20231   0.21224   0.23027   0.23692   0.24279
 Alpha virt. eigenvalues --    0.24600   0.24925   0.25862   0.26435   0.26913

 Mulliken charges:
               1
     1  I   -0.959531
     2  C   -0.142415
     3  H    0.186746
     4  H    0.181665
     5  H    0.158624
     6  O   -0.715310
     7  C    0.025306
     8  H    0.157434
     9  H    0.189231
    10  C    0.019856
    11  H    0.130522
    12  H    0.163411
    13  O   -0.668818
    14  C    0.036781
    15  H    0.204593
    16  H    0.183028
    17  C   -0.196858
    18  H    0.215545
    19  H    0.214115
    20  N   -0.612567
    21  C    0.426613
    22  H    0.312378
    23  N   -0.642641
    24  C    0.056148
    25  H    0.372841
    26  C    0.019813
    27  H    0.302273
    28  C   -0.136158
    29  H    0.197013
    30  H    0.220203
    31  C   -0.000894
    32  H    0.220470
    33  H    0.171721
    34  O   -0.658324
    35  C   -0.015886
    36  H    0.120151
    37  H    0.251520
    38  C    0.034841
    39  H    0.142995
    40  H    0.133710
    41  O   -0.642422
    42  C   -0.147193
    43  H    0.186490
    44  H    0.134840
    45  H    0.168138
 Sum of Mulliken charges =  -0.00000

 Dipole moment (field-independent basis, Debye):
    X=            -20.9400    Y=            -15.4134    Z=             -0.1133  Tot=             26.0013
 Quadrupole moment (field-independent basis, Debye-Ang):
   XX=           -128.3904   YY=           -162.1723   ZZ=           -119.5923
   XY=            -33.4795   XZ=              8.9780   YZ=             -0.4197

 ESP charges:
               1
     1  I   -0.919266
     2  C   -0.256326
     3  H    0.158124
     4  H    0.146241
     5  H    0.125181
     6  O   -0.288293
     7  C   -0.102963
     8  H    0.089364
     9  H    0.144773
    10  C    0.117110
    11  H    0.043573
    12  H    0.058138
    13  O   -0.370305
    14  C   -0.002492
    15  H    0.102172
    16  H    0.098137
    17  C    0.054564
    18  H    0.040575
    19  H    0.085587
    20  N    0.022335
    21  C   -0.119176
    22  H    0.249853
    23  N    0.133559
    24  C   -0.065686
    25  H    0.191292
    26  C   -0.190925
    27  H    0.266205
    28  C    0.016104
    29  H    0.046449
    30  H    0.088138
    31  C    0.041383
    32  H    0.087652
    33  H    0.075563
    34  O   -0.457370
    35  C    0.307623
    36  H   -0.034087
    37  H    0.020144
    38  C    0.063047
    39  H    0.040226
    40  H    0.043490
    41  O   -0.305710
    42  C   -0.159994
    43  H    0.120872
    44  H    0.074998
    45  H    0.120121
 Sum of ESP charges =  -0.00000

 Normal termination of Gaussian 16 at Wed Jul 10 12:29:24 2024.
